FROM ubuntu:trusty

RUN apt-get update -y && \
    apt-get install -y software-properties-common && \
    add-apt-repository ppa:webupd8team/java -y && \
    apt-get update -y && \
    echo oracle-java8-installer shared/accepted-oracle-license-v1-1 select true | /usr/bin/debconf-set-selections && \
    apt-get install -y oracle-java8-installer git && \
    apt-get remove software-properties-common -y && \
    apt-get autoremove -y && \
    apt-get clean
ENV JAVA_HOME /usr/lib/jvm/java-8-oracle

# Installs Ant
ENV ANT_VERSION 1.9.4
RUN cd && \
    wget -q http://archive.apache.org/dist/ant/binaries/apache-ant-${ANT_VERSION}-bin.tar.gz && \
    tar -xzf apache-ant-${ANT_VERSION}-bin.tar.gz && \
    mv apache-ant-${ANT_VERSION} /opt/ant && \
    rm apache-ant-${ANT_VERSION}-bin.tar.gz
ENV ANT_HOME /opt/ant
ENV PATH ${PATH}:/opt/ant/bin

# Installs i386 architecture required for running 32 bit Android tools
RUN dpkg --add-architecture i386 && \
    apt-get update -y && \
    apt-get install -y libc6:i386 libncurses5:i386 libstdc++6:i386 lib32z1 && \
    rm -rf /var/lib/apt/lists/* && \
    apt-get autoremove -y && \
    apt-get clean

# Installs Android SDK
ENV ANDROID_SDK_FILENAME android-sdk_r24.4.1-linux.tgz
ENV ANDROID_SDK_URL http://dl.google.com/android/${ANDROID_SDK_FILENAME}
ENV ANDROID_API_LEVELS android-15,android-16,android-17,android-18,android-19,android-20,android-21,android-22 
ENV ANDROID_BUILD_TOOLS_VERSION 23.0.2
ENV ANDROID_HOME /opt/android-sdk-linux
ENV PATH ${PATH}:${ANDROID_HOME}/tools:${ANDROID_HOME}/platform-tools
RUN cd /opt && \
    wget -q ${ANDROID_SDK_URL} && \
    tar -xzf ${ANDROID_SDK_FILENAME} && \
    rm ${ANDROID_SDK_FILENAME} && \
    echo y | android update sdk --no-ui -a --filter tools,platform-tools,${ANDROID_API_LEVELS},build-tools-${ANDROID_BUILD_TOOLS_VERSION}

ENV NODE_VERSION 0.12.9
RUN cd && \
    wget -q http://nodejs.org/dist/v${NODE_VERSION}/node-v${NODE_VERSION}-linux-x64.tar.gz && \
    tar -xzf node-v${NODE_VERSION}-linux-x64.tar.gz && \
    mv node-v${NODE_VERSION}-linux-x64 /opt/node && \
    rm node-v${NODE_VERSION}-linux-x64.tar.gz
ENV PATH ${PATH}:/opt/node/bin

# Installs Cordova
# Forces a platform add in order to preload libraries

RUN npm install -g npm && \
    npm install -g cordova && \
    cd /tmp && \
    cordova create fakeapp && \
    cd /tmp/fakeapp && \
    cordova platform add android && \
    cordova plugin add cordova-plugin-crosswalk-webview && \
    cordova build android && \
    cd && \
    rm -rf /tmp/fakeapp

VOLUME ["/data"]
WORKDIR /data

EXPOSE 8000
